 Gaussian 16, Revision C.01,
 Gaussian 16:  ES64L-G16RevC.01  3-Jul-2019

 -------------------------------------------------
 #opt=(calcfc,ts,noeigentest) freq B3LYP 6-31+G(d)
 -------------------------------------------------

 -----------------------
 alkene_transition_state
 -----------------------
 Symbolic Z-matrix:
 Charge =  0 Multiplicity = 1

 SCF Done:  E(RB3LYP) =  -5221.95132103     A.U. after   23 cycles
 SCF Done:  E(RB3LYP) =  -5221.95129284     A.U. after   17 cycles
 SCF Done:  E(RB3LYP) =  -5221.95132185     A.U. after   17 cycles
 SCF Done:  E(RB3LYP) =  -5221.95132312     A.U. after   12 cycles
 SCF Done:  E(RB3LYP) =  -5221.95126866     A.U. after   17 cycles
 SCF Done:  E(RB3LYP) =  -5221.95132562     A.U. after   17 cycles
 SCF Done:  E(RB3LYP) =  -5221.95132748     A.U. after   12 cycles
 SCF Done:  E(RB3LYP) =  -5221.95121651     A.U. after   17 cycles
 SCF Done:  E(RB3LYP) =  -5221.95132942     A.U. after   19 cycles
 SCF Done:  E(RB3LYP) =  -5221.95133040     A.U. after   12 cycles
 SCF Done:  E(RB3LYP) =  -5221.95133065     A.U. after   12 cycles
 SCF Done:  E(RB3LYP) =  -5221.95133078     A.U. after   12 cycles
 SCF Done:  E(RB3LYP) =  -5221.95133084     A.U. after   12 cycles
 Optimization completed.
    -- Stationary point found.
 Normal termination of Gaussian 16 at Wed Jan 26 09:41:21 2022.

 ---------------------------------------------------------------------
 #N Geom=AllCheck Guess=TCheck SCRF=Check GenChk RB3LYP/6-31+G(d) Freq
 ---------------------------------------------------------------------

 Structure from the checkpoint file:  "/localscratch/lustra.25374842.0/Gau-200246.chk"
 -----------------------
 alkene_transition_state
 -----------------------
 Charge =  0 Multiplicity = 1

                         Standard orientation:
 ---------------------------------------------------------------------
 Center     Atomic      Atomic             Coordinates (Angstroms)
 Number     Number       Type             X           Y           Z
 ---------------------------------------------------------------------
      1          6           0        1.043284    1.772338   -0.648938
      2          6           0        1.114030    1.571979    0.720342
      3          1           0        1.935590    1.971852   -1.234724
      4          1           0        2.054053    1.679674    1.252356
      5          1           0        0.086004    1.729058   -1.157328
      6          1           0        0.205790    1.477336    1.305162
      7         35           0        1.262137   -0.725110   -0.020328
      8         35           0       -1.754289   -0.044142    0.003360
 ---------------------------------------------------------------------

 SCF Done:  E(RB3LYP) =  -5221.95133084     A.U. after    1 cycles

 The electronic state is 1-A.
 Alpha  occ. eigenvalues -- -482.96454-482.87253 -61.92348 -61.83310 -56.44185
 Alpha  occ. eigenvalues --  -56.43752 -56.43672 -56.35078 -56.34807 -56.34799
 Alpha  occ. eigenvalues --  -10.28605 -10.28540  -8.62842  -8.54020  -6.58298
 Alpha  occ. eigenvalues --   -6.56852  -6.56558  -6.49083  -6.48158  -6.48141
 Alpha  occ. eigenvalues --   -2.69780  -2.69465  -2.69235  -2.68084  -2.68073
 Alpha  occ. eigenvalues --   -2.60655  -2.60419  -2.60403  -2.59670  -2.59670
 Alpha  occ. eigenvalues --   -0.85605  -0.76654  -0.69735  -0.65811  -0.54325
 Alpha  occ. eigenvalues --   -0.49363  -0.43455  -0.40519  -0.33488  -0.32877
 Alpha  occ. eigenvalues --   -0.25585  -0.25276  -0.23627
 Alpha virt. eigenvalues --   -0.19783  -0.07563  -0.00874   0.01184   0.02540
 Alpha virt. eigenvalues --    0.02888   0.05326   0.05673   0.06488   0.06874
 Alpha virt. eigenvalues --    0.07007   0.08811   0.09928   0.09970   0.11127

 Mulliken charges:
               1
     1  C   -0.263547
     2  C   -0.386564
     3  H    0.241987
     4  H    0.250738
     5  H    0.278372
     6  H    0.288227
     7  Br  -0.019275
     8  Br  -0.389937
 Sum of Mulliken charges =  -0.00000

 Dipole moment (field-independent basis, Debye):
    X=              4.9139    Y=              3.2916    Z=              0.0806  Tot=              5.9151
 Quadrupole moment (field-independent basis, Debye-Ang):
   XX=            -53.2247   YY=            -45.2518   ZZ=            -48.9663
   XY=              3.1411   XZ=              0.2316   YZ=             -0.2158

  Exact polarizability:     141.614      16.133      84.798      -1.166      -1.905      58.382
 Approx polarizability:     571.833      96.282     178.214     -15.579      -8.271      91.585

 ******    1 imaginary frequencies (negative Signs) ******

                      1                      2                      3
                      A                      A                      A
 Frequencies --   -192.0189                49.1909               149.6736
 Red. masses --      9.2693                 3.5229                22.4491
 Frc consts  --      0.2014                 0.0050                 0.2963
 IR Inten    --    152.1143                 0.1002                11.4259

                      4                      5                      6
                      A                      A                      A
 Frequencies --    160.0407               173.0464               509.6002
 Red. masses --      4.6877                 2.3909                 1.0517
 Frc consts  --      0.0707                 0.0422                 0.1609
 IR Inten    --      4.4828                 1.5270                 0.5681

                      7                      8                      9
                      A                      A                      A
 Frequencies --    830.9790               904.3482              1007.2912
 Red. masses --      1.0449                 1.0170                 1.2552
 Frc consts  --      0.4251                 0.4900                 0.7504
 IR Inten    --      0.2361                 1.0112                29.5928

                     10                     11                     12
                      A                      A                      A
 Frequencies --   1044.9868              1245.0584              1307.7677
 Red. masses --      1.1243                 1.4714                 1.9264
 Frc consts  --      0.7233                 1.3439                 1.9412
 IR Inten    --     60.7452                 0.1704                56.6017

                     13                     14                     15
                      A                      A                      A
 Frequencies --   1464.4776              1558.6357              3183.3278
 Red. masses --      1.1100                 1.6407                 1.0520
 Frc consts  --      1.4027                 2.3484                 6.2813
 IR Inten    --     20.4515                98.1509                 1.3192

                     16                     17                     18
                      A                      A                      A
 Frequencies --   3187.2380              3282.4791              3299.0045
 Red. masses --      1.0609                 1.1204                 1.1200
 Frc consts  --      6.3495                 7.1124                 7.1819
 IR Inten    --      2.2734                 2.1015                 1.9140

 - Thermochemistry -
 -------------------
 Temperature   298.150 Kelvin.  Pressure   1.00000 Atm.
 Atom     1 has atomic number  6 and mass  12.00000

 Molecular mass:   185.86797 amu.
 Principal axes and moments of inertia in atomic units:
                           1         2         3
     Eigenvalues --   487.770031509.085031871.91361
           X            0.99847   0.05522   0.00147
           Y           -0.05521   0.99846  -0.00473
           Z           -0.00173   0.00464   0.99999
 This molecule is an asymmetric top.
 Rotational symmetry number  1.
 Warning -- assumption of classical behavior for rotation
           may cause significant error
 Rotational temperatures (Kelvin)      0.17757     0.05739     0.04627
 Rotational constants (GHZ):           3.69998     1.19592     0.96412
    1 imaginary frequencies ignored.
 Zero-point vibrational energy     139706.8 (Joules/Mol)
                                   33.39072 (Kcal/Mol)
 Warning -- explicit consideration of   5 degrees of freedom as
           vibrations may cause significant error
 Vibrational temperatures:     70.77   215.35   230.26   248.98   733.20
          (Kelvin)           1195.59  1301.16  1449.27  1503.50  1791.36
                             1881.59  2107.06  2242.53  4580.10  4585.72
                             4722.76  4746.53

 Zero-point correction=                           0.053211 (Hartree/Particle)
 Thermal correction to Energy=                    0.059196
 Thermal correction to Enthalpy=                  0.060140
 Thermal correction to Gibbs Free Energy=         0.020247
 Sum of electronic and zero-point Energies=          -5221.898119
 Sum of electronic and thermal Energies=             -5221.892135
 Sum of electronic and thermal Enthalpies=           -5221.891191
 Sum of electronic and thermal Free Energies=        -5221.931084

                     E (Thermal)             CV                S
                      KCal/Mol        Cal/Mol-Kelvin    Cal/Mol-Kelvin
 Total                   37.146             17.101             83.963
 Electronic               0.000              0.000              0.000
 Translational            0.889              2.981             41.566
 Rotational               0.889              2.981             28.712
 Vibrational             35.369             11.139             13.685
 Vibration     1          0.595              1.978              4.850
 Vibration     2          0.618              1.903              2.676
 Vibration     3          0.622              1.891              2.549
 Vibration     4          0.627              1.876              2.402
 Vibration     5          0.865              1.229              0.635

 Optimization completed.
    -- Stationary point found.
 Normal termination of Gaussian 16 at Wed Jan 26 09:42:43 2022.
