 Gaussian 16, Revision C.01,
 Gaussian 16:  ES64L-G16RevC.01  3-Jul-2019

 ---------------------
 #n B3LYP/6-31G(d) Opt
 ---------------------

 -----------------------
 ditbutylteropyrenophane
 -----------------------
 Symbolic Z-matrix:
 Charge =  0 Multiplicity = 1

 SCF Done:  E(RB3LYP) =  -1697.30005712     A.U. after   16 cycles
 SCF Done:  E(RB3LYP) =  -1697.31742998     A.U. after   13 cycles
 SCF Done:  E(RB3LYP) =  -1697.31885568     A.U. after   12 cycles
 SCF Done:  E(RB3LYP) =  -1697.31895084     A.U. after   12 cycles
 SCF Done:  E(RB3LYP) =  -1697.31898432     A.U. after   11 cycles
 SCF Done:  E(RB3LYP) =  -1697.31898531     A.U. after    7 cycles
 Optimization completed.
    -- Stationary point found.

                         Standard orientation:
 ---------------------------------------------------------------------
 Center     Atomic      Atomic             Coordinates (Angstroms)
 Number     Number       Type             X           Y           Z
 ---------------------------------------------------------------------
      1          6           0        0.721914    0.014332   -0.000006
      2          6           0        1.439876    1.251240   -0.000006
      3          6           0        1.440509   -1.223147   -0.000006
      4          6           0        2.868056    1.254321   -0.000004
      5          6           0        3.575762    0.014051   -0.000003
      6          6           0        2.867291   -1.226293   -0.000004
      7          6           0        0.681059   -2.433012   -0.000008
      8          6           0        3.636365    2.466332   -0.000003
      9          6           0        0.681276    2.460836   -0.000008
     10          6           0        3.636068   -2.439501   -0.000003
     11          6           0        5.008360    0.014049   -0.000001
     12          6           0        5.738125    1.235502    0.000000
     13          6           0        5.738976   -1.209767    0.000000
     14          6           0        7.144774    1.211779    0.000003
     15          6           0        7.140843   -1.182177    0.000002
     16          6           0        7.869737    0.016491    0.000003
     17          6           0        4.998488   -2.435784   -0.000001
     18          1           0        7.661204    2.165827    0.000004
     19          6           0        4.999692    2.461133   -0.000001
     20          1           0        7.664566   -2.134755    0.000004
     21          6           0       -7.869737    0.016491    0.000004
     22          6           0       -7.140843   -1.182177    0.000003
     23          6           0       -7.144774    1.211779    0.000003
     24          6           0       -5.738976   -1.209767    0.000000
     25          6           0       -5.738125    1.235502    0.000000
     26          6           0       -5.008360    0.014049   -0.000001
     27          6           0       -3.575762    0.014052   -0.000003
     28          6           0       -2.868056    1.254321   -0.000004
     29          6           0       -2.867291   -1.226293   -0.000004
     30          6           0       -1.439876    1.251240   -0.000006
     31          6           0       -1.440509   -1.223146   -0.000006
     32          6           0       -0.721914    0.014332   -0.000006
     33          1           0       -7.664566   -2.134755    0.000004
     34          1           0       -7.661204    2.165827    0.000004
     35          6           0       -4.998488   -2.435784   -0.000001
     36          6           0       -4.999692    2.461133   -0.000001
     37          6           0       -3.636365    2.466332   -0.000003
     38          6           0       -3.636068   -2.439501   -0.000003
     39          6           0       -0.681276    2.460836   -0.000008
     40          6           0       -0.681059   -2.433012   -0.000008
     41          1           0        3.125949   -3.395226   -0.000004
     42          1           0        5.546297   -3.375134   -0.000000
     43          1           0       -1.191374   -3.388423   -0.000011
     44          1           0        1.191374   -3.388423   -0.000011
     45          1           0       -5.546297   -3.375134   -0.000000
     46          1           0       -3.125949   -3.395226   -0.000004
     47          1           0       -5.548233    3.400062   -0.000000
     48          1           0       -3.127051    3.422499   -0.000004
     49          1           0       -1.191741    3.416179   -0.000010
     50          1           0        1.191741    3.416179   -0.000010
     51          1           0        3.127051    3.422499   -0.000003
     52          1           0        5.548233    3.400062    0.000000
     53          6           0        9.409528   -0.024586    0.000007
     54          6           0       -9.409528   -0.024586    0.000007
     55          6           0       10.034699    1.383294    0.000023
     56          6           0        9.904143   -0.770060   -1.262393
     57          6           0        9.904134   -0.770085    1.262396
     58          6           0      -10.034699    1.383294    0.000019
     59          6           0       -9.904135   -0.770081    1.262398
     60          6           0       -9.904142   -0.770064   -1.262391
     61          1           0       -9.747191    1.957641    0.888032
     62          1           0      -11.127429    1.301023    0.000017
     63          1           0       -9.747190    1.957656   -0.887984
     64          1           0       -9.573741   -0.259040   -2.173891
     65          1           0      -11.000172   -0.813040   -1.274493
     66          1           0       -9.530199   -1.798410   -1.302276
     67          1           0        9.747189    1.957659   -0.887978
     68          1           0       11.127429    1.301023    0.000020
     69          1           0        9.747192    1.957638    0.888038
     70          1           0        9.573742   -0.259035   -2.173891
     71          1           0        9.530200   -1.798407   -1.302281
     72          1           0       11.000172   -0.813036   -1.274495
     73          1           0        9.573730   -0.259075    2.173903
     74          1           0       11.000164   -0.813064    1.274503
     75          1           0        9.530188   -1.798431    1.302264
     76          1           0       -9.573731   -0.259069    2.173903
     77          1           0       -9.530189   -1.798427    1.302269
     78          1           0      -11.000164   -0.813060    1.274505
 ---------------------------------------------------------------------

 The electronic state is 1-A.
 Alpha  occ. eigenvalues --  -10.20490 -10.20490 -10.20082 -10.20048 -10.20009
 Alpha  occ. eigenvalues --  -10.20008 -10.20004 -10.20003 -10.19959 -10.19959
 Alpha  occ. eigenvalues --  -10.19954 -10.19951 -10.19818 -10.19818 -10.19513
 Alpha  occ. eigenvalues --  -10.19513 -10.19472 -10.19472 -10.19462 -10.19462
 Alpha  occ. eigenvalues --  -10.19377 -10.19377 -10.19033 -10.19033 -10.19008
 Alpha  occ. eigenvalues --  -10.19008 -10.18961 -10.18961 -10.18940 -10.18937
 Alpha  occ. eigenvalues --  -10.18936 -10.18936 -10.18870 -10.18867 -10.18592
 Alpha  occ. eigenvalues --  -10.18592 -10.18539 -10.18539 -10.17503 -10.17503
 Alpha  occ. eigenvalues --  -10.17471 -10.17471 -10.17470 -10.17470  -0.89746
 Alpha  occ. eigenvalues --   -0.88786  -0.87215  -0.85046  -0.83945  -0.83554
 Alpha  occ. eigenvalues --   -0.82805  -0.81882  -0.81241  -0.80007  -0.77398
 Alpha  occ. eigenvalues --   -0.77087  -0.75785  -0.74677  -0.74409  -0.73797
 Alpha  occ. eigenvalues --   -0.73425  -0.71709  -0.71097  -0.69307  -0.68502
 Alpha  occ. eigenvalues --   -0.68387  -0.68387  -0.67950  -0.64367  -0.63972
 Alpha  occ. eigenvalues --   -0.63758  -0.62416  -0.61647  -0.61234  -0.61109
 Alpha  occ. eigenvalues --   -0.60236  -0.58467  -0.57653  -0.54792  -0.54073
 Alpha  occ. eigenvalues --   -0.53376  -0.52871  -0.51544  -0.51221  -0.50654
 Alpha  occ. eigenvalues --   -0.49919  -0.49305  -0.48934  -0.48294  -0.48265
 Alpha  occ. eigenvalues --   -0.47183  -0.46281  -0.45650  -0.44600  -0.44138
 Alpha  occ. eigenvalues --   -0.43845  -0.43843  -0.43750  -0.43533  -0.42551
 Alpha  occ. eigenvalues --   -0.42369  -0.42073  -0.41882  -0.41336  -0.40740
 Alpha  occ. eigenvalues --   -0.40704  -0.40565  -0.40558  -0.40046  -0.39563
 Alpha  occ. eigenvalues --   -0.39502  -0.39133  -0.39067  -0.38563  -0.38029
 Alpha  occ. eigenvalues --   -0.37983  -0.37866  -0.37670  -0.37452  -0.37391
 Alpha  occ. eigenvalues --   -0.37177  -0.36592  -0.36578  -0.35329  -0.35267
 Alpha  occ. eigenvalues --   -0.35178  -0.34533  -0.33973  -0.33649  -0.33137
 Alpha  occ. eigenvalues --   -0.33122  -0.32816  -0.32132  -0.31973  -0.31554
 Alpha  occ. eigenvalues --   -0.31434  -0.31355  -0.31169  -0.30138  -0.27882
 Alpha  occ. eigenvalues --   -0.27750  -0.25737  -0.25065  -0.24720  -0.24698
 Alpha  occ. eigenvalues --   -0.23732  -0.21277  -0.20747  -0.16635
 Alpha virt. eigenvalues --   -0.08209  -0.04141  -0.03800  -0.01459  -0.00441
 Alpha virt. eigenvalues --   -0.00121  -0.00016   0.01642   0.03167   0.04538
 Alpha virt. eigenvalues --    0.08153   0.08166   0.08340   0.09024   0.09605

 Mulliken charges:
               1
     1  C    0.017937
     2  C    0.057124
     3  C    0.056638
     4  C    0.050402
     5  C    0.048471
     6  C    0.048924
     7  C   -0.204488
     8  C   -0.187553
     9  C   -0.204807
    10  C   -0.186418
    11  C   -0.053113
    12  C    0.190942
    13  C    0.187297
    14  C   -0.316105
    15  C   -0.303681
    16  C    0.201933
    17  C   -0.211726
    18  H    0.125532
    19  C   -0.211590
    20  H    0.124013
    21  C    0.201933
    22  C   -0.303681
    23  C   -0.316105
    24  C    0.187297
    25  C    0.190942
    26  C   -0.053113
    27  C    0.048471
    28  C    0.050402
    29  C    0.048924
    30  C    0.057124
    31  C    0.056638
    32  C    0.017937
    33  H    0.124013
    34  H    0.125532
    35  C   -0.211726
    36  C   -0.211590
    37  C   -0.187553
    38  C   -0.186418
    39  C   -0.204807
    40  C   -0.204488
    41  H    0.134185
    42  H    0.128312
    43  H    0.134083
    44  H    0.134083
    45  H    0.128312
    46  H    0.134185
    47  H    0.128552
    48  H    0.134073
    49  H    0.134133
    50  H    0.134133
    51  H    0.134073
    52  H    0.128552
    53  C    0.014391
    54  C    0.014391
    55  C   -0.455706
    56  C   -0.439166
    57  C   -0.439167
    58  C   -0.455706
    59  C   -0.439167
    60  C   -0.439166
    61  H    0.146151
    62  H    0.141852
    63  H    0.146151
    64  H    0.148601
    65  H    0.138939
    66  H    0.143672
    67  H    0.146151
    68  H    0.141852
    69  H    0.146151
    70  H    0.148601
    71  H    0.143672
    72  H    0.138939
    73  H    0.148601
    74  H    0.138939
    75  H    0.143672
    76  H    0.148601
    77  H    0.143672
    78  H    0.138939
 Sum of Mulliken charges =  -0.00000

 Dipole moment (field-independent basis, Debye):
    X=             -0.0000    Y=             -0.0218    Z=              0.0000  Tot=              0.0218
 Quadrupole moment (field-independent basis, Debye-Ang):
   XX=           -211.3980   YY=           -228.8582   ZZ=           -264.3633
   XY=             -0.0000   XZ=              0.0000   YZ=              0.0000

 Normal termination of Gaussian 16 at Wed Jan 26 00:44:35 2022.
