 Gaussian 16, Revision C.01,
 Gaussian 16:  ES64L-G16RevC.01  3-Jul-2019

 ---------------------
 #n B3LYP/6-31G(d) Opt
 ---------------------

 -----
 Title
 -----
 Symbolic Z-matrix:
 Charge =  0 Multiplicity = 1

 SCF Done:  E(RB3LYP) =  -1313.78542970     A.U. after   15 cycles
 SCF Done:  E(RB3LYP) =  -1313.79966708     A.U. after   12 cycles
 SCF Done:  E(RB3LYP) =  -1313.80061968     A.U. after   11 cycles
 SCF Done:  E(RB3LYP) =  -1313.80070107     A.U. after   11 cycles
 SCF Done:  E(RB3LYP) =  -1313.80072652     A.U. after   10 cycles
 SCF Done:  E(RB3LYP) =  -1313.80072715     A.U. after    7 cycles
 Optimization completed.
    -- Stationary point found.

                         Standard orientation:
 ---------------------------------------------------------------------
 Center     Atomic      Atomic             Coordinates (Angstroms)
 Number     Number       Type             X           Y           Z
 ---------------------------------------------------------------------
      1          6           0        5.714237    0.033190   -0.000001
      2          6           0        4.991764   -1.168931   -0.000002
      3          6           0        4.982254    1.224345   -0.000001
      4          6           0        3.575952    1.240420   -0.000008
      5          6           0        3.590096   -1.204270   -0.000007
      6          6           0        2.851678    0.015263   -0.000011
      7          6           0        1.418480    0.007360   -0.000014
      8          6           0        0.705797    1.247921   -0.000015
      9          6           0        0.719373   -1.240221   -0.000015
     10          6           0       -0.719373    1.240222   -0.000015
     11          6           0       -0.705797   -1.247921   -0.000016
     12          6           0       -1.418480   -0.007360   -0.000014
     13          1           0        5.493270    2.181340    0.000001
     14          6           0        2.832638    2.463774   -0.000012
     15          6           0        2.858434   -2.435743   -0.000009
     16          6           0        7.254227    0.000682    0.000018
     17          1           0        5.520408   -2.118825    0.000006
     18          6           0       -1.470267   -2.463607   -0.000017
     19          6           0       -2.851678   -0.015263   -0.000011
     20          6           0        1.470267    2.463607   -0.000016
     21          6           0       -1.496730    2.448617   -0.000014
     22          6           0        1.496730   -2.448617   -0.000013
     23          1           0        3.413204   -3.371040   -0.000009
     24          1           0        0.991197   -3.406952   -0.000016
     25          1           0        3.378093    3.404545   -0.000013
     26          1           0        0.955441    3.416975   -0.000020
     27          6           0       -3.590096    1.204270   -0.000008
     28          6           0       -3.575952   -1.240420   -0.000008
     29          6           0       -4.991764    1.168931   -0.000003
     30          6           0       -4.982253   -1.224345   -0.000002
     31          6           0       -5.714237   -0.033190   -0.000002
     32          6           0       -2.858434    2.435743   -0.000010
     33          1           0       -5.520408    2.118825    0.000006
     34          6           0       -7.254227   -0.000682    0.000019
     35          6           0       -2.832638   -2.463774   -0.000013
     36          1           0       -5.493270   -2.181340    0.000001
     37          1           0       -3.413204    3.371040   -0.000010
     38          1           0       -0.991197    3.406952   -0.000016
     39          1           0       -3.378093   -3.404545   -0.000014
     40          1           0       -0.955441   -3.416975   -0.000021
     41          6           0        7.753053   -0.742119    1.262324
     42          6           0        7.871514    1.412042    0.000134
     43          6           0        7.753099   -0.741928   -1.262382
     44          6           0       -7.871514   -1.412042    0.000151
     45          6           0       -7.753101    0.741914   -1.262389
     46          6           0       -7.753051    0.742133    1.262317
     47          1           0        7.419849   -0.232967    2.173854
     48          1           0        8.849319   -0.779165    1.274443
     49          1           0        7.384644   -1.772467    1.302152
     50          1           0        7.384717   -1.772280   -1.302367
     51          1           0        8.849366   -0.778946   -1.274480
     52          1           0        7.419905   -0.232653   -2.173847
     53          1           0       -7.419907    0.232629   -2.173849
     54          1           0       -7.384722    1.772265   -1.302386
     55          1           0       -8.849368    0.778929   -1.274487
     56          1           0       -7.580690   -1.984866   -0.887766
     57          1           0       -8.964709   -1.335960    0.000114
     58          1           0       -7.580740   -1.984679    0.888205
     59          1           0        7.580737    1.984691    0.888179
     60          1           0        7.580694    1.984854   -0.887792
     61          1           0        8.964709    1.335960    0.000102
     62          1           0       -7.419847    0.232990    2.173852
     63          1           0       -8.849317    0.779181    1.274437
     64          1           0       -7.384640    1.772481    1.302133
 ---------------------------------------------------------------------

 The electronic state is 1-A.
 Alpha  occ. eigenvalues --  -10.20421 -10.20421 -10.19907 -10.19902 -10.19865
 Alpha  occ. eigenvalues --  -10.19858 -10.19736 -10.19735 -10.19403 -10.19403
 Alpha  occ. eigenvalues --  -10.19361 -10.19361 -10.19353 -10.19353 -10.19283
 Alpha  occ. eigenvalues --  -10.19283 -10.18915 -10.18915 -10.18892 -10.18892
 Alpha  occ. eigenvalues --  -10.18843 -10.18843 -10.18821 -10.18821 -10.18483
 Alpha  occ. eigenvalues --  -10.18483 -10.18434 -10.18434 -10.17444 -10.17444
 Alpha  occ. eigenvalues --  -10.17411 -10.17411 -10.17410 -10.17410  -0.89362
 Alpha  occ. eigenvalues --   -0.87739  -0.85120  -0.83441  -0.83265  -0.81576
 Alpha  occ. eigenvalues --   -0.81386  -0.78856  -0.76670  -0.75829  -0.74106
 Alpha  occ. eigenvalues --   -0.73788  -0.73220  -0.71167  -0.69715  -0.68522
 Alpha  occ. eigenvalues --   -0.68326  -0.68326  -0.67949  -0.63912  -0.63074
 Alpha  occ. eigenvalues --   -0.63031  -0.61469  -0.60332  -0.60113  -0.58994
 Alpha  occ. eigenvalues --   -0.55930  -0.53378  -0.52954  -0.52248  -0.51846
 Alpha  occ. eigenvalues --   -0.49676  -0.49342  -0.49076  -0.48163  -0.47654
 Alpha  occ. eigenvalues --   -0.47462  -0.44884  -0.44787  -0.43963  -0.43784
 Alpha  occ. eigenvalues --   -0.43777  -0.43217  -0.42933  -0.41607  -0.41557
 Alpha  occ. eigenvalues --   -0.41428  -0.41003  -0.40951  -0.40076  -0.39820
 Alpha  occ. eigenvalues --   -0.39435  -0.39202  -0.39164  -0.38384  -0.38375
 Alpha  occ. eigenvalues --   -0.37838  -0.37476  -0.37300  -0.36973  -0.36779
 Alpha  occ. eigenvalues --   -0.36535  -0.36519  -0.35167  -0.34792  -0.33991
 Alpha  occ. eigenvalues --   -0.33751  -0.33492  -0.32952  -0.32468  -0.32339
 Alpha  occ. eigenvalues --   -0.31884  -0.31442  -0.31201  -0.30288  -0.30077
 Alpha  occ. eigenvalues --   -0.27431  -0.25848  -0.24722  -0.24712  -0.22873
 Alpha  occ. eigenvalues --   -0.21376  -0.17459
 Alpha virt. eigenvalues --   -0.07134  -0.03112  -0.01733  -0.00865   0.00785
 Alpha virt. eigenvalues --    0.02312   0.02989   0.08206   0.08238   0.08249
 Alpha virt. eigenvalues --    0.09452   0.09508   0.10418   0.11348   0.11996

 Mulliken charges:
               1
     1  C    0.201486
     2  C   -0.303374
     3  C   -0.316047
     4  C    0.189629
     5  C    0.185999
     6  C   -0.053912
     7  C    0.056065
     8  C    0.045440
     9  C    0.044290
    10  C    0.044290
    11  C    0.045440
    12  C    0.056065
    13  H    0.125030
    14  C   -0.211147
    15  C   -0.211455
    16  C    0.014595
    17  H    0.123506
    18  C   -0.187417
    19  C   -0.053912
    20  C   -0.187417
    21  C   -0.186527
    22  C   -0.186526
    23  H    0.127833
    24  H    0.133345
    25  H    0.128068
    26  H    0.133201
    27  C    0.185999
    28  C    0.189629
    29  C   -0.303374
    30  C   -0.316047
    31  C    0.201486
    32  C   -0.211455
    33  H    0.123506
    34  C    0.014595
    35  C   -0.211147
    36  H    0.125030
    37  H    0.127833
    38  H    0.133345
    39  H    0.128068
    40  H    0.133201
    41  C   -0.439071
    42  C   -0.455613
    43  C   -0.439068
    44  C   -0.455613
    45  C   -0.439068
    46  C   -0.439071
    47  H    0.148465
    48  H    0.138642
    49  H    0.143611
    50  H    0.143610
    51  H    0.138643
    52  H    0.148465
    53  H    0.148465
    54  H    0.143610
    55  H    0.138643
    56  H    0.146059
    57  H    0.141590
    58  H    0.146059
    59  H    0.146059
    60  H    0.146059
    61  H    0.141590
    62  H    0.148465
    63  H    0.138642
    64  H    0.143611
 Sum of Mulliken charges =  -0.00000

 Dipole moment (field-independent basis, Debye):
    X=              0.0000    Y=              0.0000    Z=              0.0000  Tot=              0.0000
 Quadrupole moment (field-independent basis, Debye-Ang):
   XX=           -170.4317   YY=           -181.3865   ZZ=           -206.5238
   XY=             -0.0734   XZ=             -0.0000   YZ=              0.0000

 Normal termination of Gaussian 16 at Thu Jan 27 22:46:46 2022.
