 Gaussian 16, Revision C.01,
 Gaussian 16:  ES64L-G16RevC.01  3-Jul-2019

 ---------------------
 #n B3LYP/6-31G(d) Opt
 ---------------------

 ----------
 teropyrene
 ----------
 Symbolic Z-matrix:
 Charge =  0 Multiplicity = 1

 SCF Done:  E(RB3LYP) =  -1382.78916811     A.U. after   15 cycles
 SCF Done:  E(RB3LYP) =  -1382.80760075     A.U. after   13 cycles
 SCF Done:  E(RB3LYP) =  -1382.80906125     A.U. after   11 cycles
 SCF Done:  E(RB3LYP) =  -1382.80913262     A.U. after    9 cycles
 SCF Done:  E(RB3LYP) =  -1382.80913928     A.U. after    8 cycles
 Optimization completed.
    -- Stationary point found.

                         Standard orientation:
 ---------------------------------------------------------------------
 Center     Atomic      Atomic             Coordinates (Angstroms)
 Number     Number       Type             X           Y           Z
 ---------------------------------------------------------------------
      1          6           0        0.721970    0.000020    0.000011
      2          6           0        1.440388   -1.236619    0.000022
      3          6           0        1.440406    1.236651    0.000018
      4          6           0        2.868056   -1.239868    0.000028
      5          6           0        3.578180   -0.000000    0.000013
      6          6           0        2.868072    1.239883    0.000025
      7          6           0        0.681123    2.446334    0.000016
      8          6           0        3.632710   -2.454388    0.000051
      9          6           0        0.681097   -2.446297    0.000019
     10          6           0        3.632746    2.454392    0.000036
     11          6           0        5.012409   -0.000009   -0.000001
     12          6           0        5.737327   -1.229669   -0.000004
     13          6           0        5.737341    1.229639   -0.000012
     14          6           0        7.142482   -1.207463   -0.000040
     15          6           0        7.142495    1.207414   -0.000049
     16          6           0        7.836532   -0.000029   -0.000072
     17          6           0        4.995121    2.452917    0.000016
     18          1           0        7.684060   -2.150222   -0.000046
     19          6           0        4.995087   -2.452934    0.000033
     20          1           0        7.684090    2.150163   -0.000067
     21          6           0       -7.836530   -0.000047    0.000028
     22          6           0       -7.142503    1.207401    0.000012
     23          6           0       -7.142468   -1.207475    0.000002
     24          6           0       -5.737348    1.229638   -0.000005
     25          6           0       -5.737312   -1.229673   -0.000014
     26          6           0       -5.012409   -0.000007   -0.000008
     27          6           0       -3.578181    0.000018   -0.000005
     28          6           0       -2.868056   -1.239850   -0.000007
     29          6           0       -2.868073    1.239898   -0.000002
     30          6           0       -1.440401   -1.236604    0.000008
     31          6           0       -1.440401    1.236665    0.000013
     32          6           0       -0.721975    0.000029    0.000009
     33          1           0       -7.684098    2.150150    0.000020
     34          1           0       -7.684037   -2.150239   -0.000003
     35          6           0       -4.995136    2.452918   -0.000026
     36          6           0       -4.995066   -2.452935   -0.000044
     37          6           0       -3.632689   -2.454377   -0.000047
     38          6           0       -3.632760    2.454402   -0.000031
     39          6           0       -0.681129   -2.446291    0.000011
     40          6           0       -0.681104    2.446343    0.000011
     41          1           0        3.120768    3.408948    0.000079
     42          1           0        5.541831    3.392789    0.000037
     43          1           0       -1.190792    3.401957    0.000023
     44          1           0        1.190825    3.401944    0.000012
     45          1           0       -5.541852    3.392787   -0.000050
     46          1           0       -3.120801    3.408966   -0.000070
     47          1           0       -5.541755   -3.392819   -0.000079
     48          1           0       -3.120680   -3.408921   -0.000098
     49          1           0       -1.190847   -3.401896    0.000021
     50          1           0        1.190790   -3.401911    0.000018
     51          1           0        3.120725   -3.408941    0.000103
     52          1           0        5.541780   -3.392816    0.000062
     53          1           0        8.923244   -0.000030   -0.000105
     54          1           0       -8.923242   -0.000066    0.000049
 ---------------------------------------------------------------------

 The electronic state is 1-A.
 Alpha  occ. eigenvalues --  -10.20338 -10.20306 -10.20288 -10.20285 -10.20285
 Alpha  occ. eigenvalues --  -10.20285 -10.20223 -10.20222 -10.20217 -10.20214
 Alpha  occ. eigenvalues --  -10.20135 -10.20135 -10.19896 -10.19896 -10.19839
 Alpha  occ. eigenvalues --  -10.19839 -10.19822 -10.19822 -10.19265 -10.19265
 Alpha  occ. eigenvalues --  -10.19265 -10.19265 -10.19265 -10.19265 -10.19194
 Alpha  occ. eigenvalues --  -10.19193 -10.19193 -10.19193 -10.19178 -10.19178
 Alpha  occ. eigenvalues --  -10.19144 -10.19144 -10.19131 -10.19131 -10.19108
 Alpha  occ. eigenvalues --  -10.19108  -0.89994  -0.88988  -0.87312  -0.84662
 Alpha  occ. eigenvalues --   -0.84211  -0.83086  -0.82146  -0.81512  -0.78881
 Alpha  occ. eigenvalues --   -0.77365  -0.76229  -0.74936  -0.74733  -0.74545
 Alpha  occ. eigenvalues --   -0.73937  -0.71846  -0.71786  -0.68955  -0.64482
 Alpha  occ. eigenvalues --   -0.64233  -0.64133  -0.62805  -0.61902  -0.61462
 Alpha  occ. eigenvalues --   -0.60798  -0.60522  -0.58494  -0.55862  -0.54325
 Alpha  occ. eigenvalues --   -0.53607  -0.52208  -0.51531  -0.51405  -0.50497
 Alpha  occ. eigenvalues --   -0.49877  -0.49360  -0.48927  -0.48538  -0.47099
 Alpha  occ. eigenvalues --   -0.45868  -0.45697  -0.43818  -0.43231  -0.43058
 Alpha  occ. eigenvalues --   -0.42738  -0.42426  -0.42222  -0.42144  -0.40881
 Alpha  occ. eigenvalues --   -0.40879  -0.40868  -0.40167  -0.39643  -0.39161
 Alpha  occ. eigenvalues --   -0.38843  -0.38809  -0.38740  -0.38033  -0.37875
 Alpha  occ. eigenvalues --   -0.37251  -0.35788  -0.35588  -0.35574  -0.34421
 Alpha  occ. eigenvalues --   -0.34251  -0.33267  -0.32604  -0.32246  -0.32177
 Alpha  occ. eigenvalues --   -0.32175  -0.30517  -0.28795  -0.28145  -0.26045
 Alpha  occ. eigenvalues --   -0.25360  -0.25020  -0.24953  -0.24599  -0.21827
 Alpha  occ. eigenvalues --   -0.21046  -0.16905
 Alpha virt. eigenvalues --   -0.08464  -0.04366  -0.04128  -0.01730  -0.00686
 Alpha virt. eigenvalues --   -0.00392  -0.00301   0.01422   0.02950   0.04454
 Alpha virt. eigenvalues --    0.08163   0.08624   0.09395   0.09686   0.09755

 Mulliken charges:
               1
     1  C    0.016994
     2  C    0.058887
     3  C    0.058883
     4  C    0.047593
     5  C    0.049802
     6  C    0.047595
     7  C   -0.204398
     8  C   -0.184728
     9  C   -0.204404
    10  C   -0.184727
    11  C   -0.050135
    12  C    0.175374
    13  C    0.175373
    14  C   -0.224655
    15  C   -0.224656
    16  C   -0.123761
    17  C   -0.211240
    18  H    0.129856
    19  C   -0.211241
    20  H    0.129856
    21  C   -0.123759
    22  C   -0.224658
    23  C   -0.224658
    24  C    0.175373
    25  C    0.175380
    26  C   -0.050138
    27  C    0.049804
    28  C    0.047584
    29  C    0.047601
    30  C    0.058880
    31  C    0.058891
    32  C    0.016996
    33  H    0.129856
    34  H    0.129856
    35  C   -0.211235
    36  C   -0.211247
    37  C   -0.184720
    38  C   -0.184734
    39  C   -0.204392
    40  C   -0.204400
    41  H    0.135465
    42  H    0.130719
    43  H    0.134991
    44  H    0.134992
    45  H    0.130718
    46  H    0.135463
    47  H    0.130718
    48  H    0.135466
    49  H    0.134993
    50  H    0.134992
    51  H    0.135465
    52  H    0.130718
    53  H    0.131376
    54  H    0.131377
 Sum of Mulliken charges =  -0.00000

 Dipole moment (field-independent basis, Debye):
    X=             -0.0000    Y=             -0.0000    Z=             -0.0000  Tot=              0.0000
 Quadrupole moment (field-independent basis, Debye-Ang):
   XX=           -171.8509   YY=           -174.2970   ZZ=           -212.1971
   XY=              0.0001   XZ=              0.0001   YZ=              0.0000

 Normal termination of Gaussian 16 at Wed Jan 26 00:18:52 2022.
