 Gaussian 16, Revision C.01,
 Gaussian 16:  ES64L-G16RevC.01  3-Jul-2019

 ---------------------
 #n B3LYP/6-31G(d) Opt
 ---------------------

 -----------------
 ditertbutylpyrene
 -----------------
 Symbolic Z-matrix:
 Charge =  0 Multiplicity = 1

 SCF Done:  E(RB3LYP) =  -930.271394313     A.U. after   14 cycles
 SCF Done:  E(RB3LYP) =  -930.281857423     A.U. after   12 cycles
 SCF Done:  E(RB3LYP) =  -930.282299436     A.U. after   10 cycles
 SCF Done:  E(RB3LYP) =  -930.282384283     A.U. after   10 cycles
 SCF Done:  E(RB3LYP) =  -930.282396173     A.U. after    8 cycles
 SCF Done:  E(RB3LYP) =  -930.282396569     A.U. after    6 cycles
 Optimization completed.
    -- Stationary point found.

                         Standard orientation:
 ---------------------------------------------------------------------
 Center     Atomic      Atomic             Coordinates (Angstroms)
 Number     Number       Type             X           Y           Z
 ---------------------------------------------------------------------
      1          6           0       -3.557534   -0.033898    0.000002
      2          6           0       -2.824760   -1.226958    0.000001
      3          6           0       -2.843118    1.174497    0.000002
      4          6           0       -1.442302    1.217977    0.000001
      5          6           0       -1.419802   -1.241292    0.000001
      6          6           0       -0.711820   -0.006440    0.000002
      7          6           0        0.711820    0.006440    0.000002
      8          6           0        1.419802    1.241292    0.000001
      9          6           0        1.442302   -1.217977    0.000002
     10          6           0        2.824760    1.226958    0.000001
     11          6           0        2.843118   -1.174497    0.000003
     12          6           0        3.557534    0.033898    0.000004
     13          1           0       -3.380421    2.119609    0.000000
     14          6           0       -0.702629    2.452361    0.000001
     15          6           0       -0.659749   -2.463036    0.000001
     16          6           0       -5.098435   -0.006447   -0.000001
     17          1           0       -3.337880   -2.182866    0.000000
     18          1           0        3.380421   -2.119609    0.000000
     19          6           0        5.098435    0.006447   -0.000001
     20          6           0        0.659749    2.463036    0.000000
     21          1           0        3.337880    2.182866    0.000001
     22          6           0        0.702629   -2.452361    0.000001
     23          1           0       -1.200390   -3.406788   -0.000000
     24          1           0        1.258461   -3.387224    0.000001
     25          1           0       -1.258461    3.387224   -0.000000
     26          1           0        1.200389    3.406788   -0.000000
     27          6           0        5.712350    1.419362   -0.000071
     28          6           0        5.600408   -0.734324   -1.262304
     29          6           0        5.600422   -0.734204    1.262367
     30          6           0       -5.712349   -1.419362   -0.000044
     31          6           0       -5.600411    0.734302   -1.262316
     32          6           0       -5.600419    0.734227    1.262354
     33          1           0        5.265363   -0.225998    2.173763
     34          1           0        6.696864   -0.767232    1.274490
     35          1           0        5.235857   -1.765880    1.302707
     36          1           0        5.420367    1.991442   -0.888082
     37          1           0        6.805746    1.345726   -0.000046
     38          1           0        5.420334    1.991544    0.887864
     39          1           0       -5.265361    0.226035    2.173760
     40          1           0       -6.696862    0.767258    1.274478
     41          1           0       -5.235851    1.765903    1.302677
     42          1           0       -5.420361   -1.991462   -0.888041
     43          1           0       -6.805746   -1.345726   -0.000029
     44          1           0       -5.420340   -1.991525    0.887905
     45          1           0       -5.265354    0.226158   -2.173749
     46          1           0       -5.235834    1.765976   -1.302580
     47          1           0       -6.696853    0.767342   -1.274440
     48          1           0        5.265353   -0.226196   -2.173745
     49          1           0        5.235828   -1.765999   -1.302549
     50          1           0        6.696850   -0.767368   -1.274428
 ---------------------------------------------------------------------

 The electronic state is 1-A.
 Alpha  occ. eigenvalues --  -10.20291 -10.20291 -10.19274 -10.19274 -10.19233
 Alpha  occ. eigenvalues --  -10.19233 -10.19194 -10.19194 -10.18981 -10.18936
 Alpha  occ. eigenvalues --  -10.18812 -10.18812 -10.18742 -10.18742 -10.18330
 Alpha  occ. eigenvalues --  -10.18330 -10.18284 -10.18284 -10.17337 -10.17337
 Alpha  occ. eigenvalues --  -10.17298 -10.17298 -10.17297 -10.17297  -0.88548
 Alpha  occ. eigenvalues --   -0.85250  -0.82862  -0.82234  -0.80633  -0.76821
 Alpha  occ. eigenvalues --   -0.75872  -0.73905  -0.71360  -0.70668  -0.68510
 Alpha  occ. eigenvalues --   -0.68213  -0.68213  -0.67914  -0.62741  -0.61835
 Alpha  occ. eigenvalues --   -0.61625  -0.60086  -0.57588  -0.54102  -0.51499
 Alpha  occ. eigenvalues --   -0.51139  -0.50109  -0.49917  -0.47988  -0.47385
 Alpha  occ. eigenvalues --   -0.45192  -0.44400  -0.43679  -0.43646  -0.42932
 Alpha  occ. eigenvalues --   -0.42397  -0.42104  -0.41081  -0.40878  -0.40501
 Alpha  occ. eigenvalues --   -0.39302  -0.39230  -0.38725  -0.38675  -0.38607
 Alpha  occ. eigenvalues --   -0.37355  -0.37312  -0.36430  -0.36411  -0.36382
 Alpha  occ. eigenvalues --   -0.35563  -0.35016  -0.33426  -0.33294  -0.32839
 Alpha  occ. eigenvalues --   -0.32606  -0.32336  -0.31673  -0.31001  -0.30562
 Alpha  occ. eigenvalues --   -0.27720  -0.26604  -0.24802  -0.21681  -0.19134
 Alpha virt. eigenvalues --   -0.05085  -0.01800   0.00306   0.02529   0.05930
 Alpha virt. eigenvalues --    0.08341   0.08364   0.10628   0.11471   0.11598
 Alpha virt. eigenvalues --    0.12474   0.12631   0.13378   0.13568   0.14166

 Mulliken charges:
               1
     1  C    0.203196
     2  C   -0.318212
     3  C   -0.305510
     4  C    0.177050
     5  C    0.179610
     6  C   -0.015741
     7  C   -0.015741
     8  C    0.179610
     9  C    0.177050
    10  C   -0.318212
    11  C   -0.305510
    12  C    0.203196
    13  H    0.122590
    14  C   -0.197631
    15  C   -0.196306
    16  C    0.014809
    17  H    0.124101
    18  H    0.122590
    19  C    0.014809
    20  C   -0.196306
    21  H    0.124101
    22  C   -0.197631
    23  H    0.126881
    24  H    0.126564
    25  H    0.126564
    26  H    0.126881
    27  C   -0.455543
    28  C   -0.438741
    29  C   -0.438739
    30  C   -0.455543
    31  C   -0.438741
    32  C   -0.438740
    33  H    0.148056
    34  H    0.137998
    35  H    0.143383
    36  H    0.145839
    37  H    0.141068
    38  H    0.145839
    39  H    0.148056
    40  H    0.137998
    41  H    0.143383
    42  H    0.145839
    43  H    0.141068
    44  H    0.145839
    45  H    0.148056
    46  H    0.143383
    47  H    0.137997
    48  H    0.148056
    49  H    0.143383
    50  H    0.137997
 Sum of Mulliken charges =  -0.00000

 Dipole moment (field-independent basis, Debye):
    X=              0.0000    Y=             -0.0000    Z=             -0.0000  Tot=              0.0000
 Quadrupole moment (field-independent basis, Debye-Ang):
   XX=           -128.1386   YY=           -133.8022   ZZ=           -148.7090
   XY=             -0.0046   XZ=             -0.0000   YZ=              0.0000

 Normal termination of Gaussian 16 at Wed Jan 26 08:17:11 2022.
