 Gaussian 16, Revision C.01,
 Gaussian 16:  ES64L-G16RevC.01  3-Jul-2019

 ---------------------
 #n B3LYP/6-31G(d) Opt
 ---------------------

 ------
 pyrene
 ------
 Symbolic Z-matrix:
 Charge =  0 Multiplicity = 1

 SCF Done:  E(RB3LYP) =  -615.765782255     A.U. after   13 cycles
 SCF Done:  E(RB3LYP) =  -615.772687258     A.U. after   12 cycles
 SCF Done:  E(RB3LYP) =  -615.773090093     A.U. after   10 cycles
 SCF Done:  E(RB3LYP) =  -615.773106445     A.U. after    8 cycles
 Optimization completed.
    -- Stationary point found.

                         Standard orientation:
 ---------------------------------------------------------------------
 Center     Atomic      Atomic             Coordinates (Angstroms)
 Number     Number       Type             X           Y           Z
 ---------------------------------------------------------------------
      1          6           0       -3.524049   -0.000000    0.000001
      2          6           0       -2.833332   -1.210590    0.000001
      3          6           0       -2.833332    1.210590    0.000001
      4          6           0       -1.429463    1.236655   -0.000000
      5          6           0       -1.429463   -1.236655   -0.000000
      6          6           0       -0.713290    0.000000   -0.000001
      7          6           0        0.713290    0.000000   -0.000001
      8          6           0        1.429463    1.236655   -0.000000
      9          6           0        1.429463   -1.236655   -0.000000
     10          6           0        2.833332    1.210590    0.000001
     11          6           0        2.833332   -1.210590    0.000001
     12          6           0        3.524048   -0.000000    0.000001
     13          1           0       -3.379812    2.150713    0.000001
     14          6           0       -0.680830    2.463686   -0.000001
     15          6           0       -0.680830   -2.463685   -0.000001
     16          1           0       -4.610798   -0.000000    0.000002
     17          1           0       -3.379812   -2.150713    0.000001
     18          1           0        3.379812   -2.150713    0.000001
     19          1           0        4.610798    0.000000    0.000002
     20          6           0        0.680829    2.463686   -0.000001
     21          1           0        3.379812    2.150713    0.000001
     22          6           0        0.680830   -2.463685   -0.000001
     23          1           0       -1.229752   -3.402527   -0.000002
     24          1           0        1.229752   -3.402527   -0.000001
     25          1           0       -1.229752    3.402527   -0.000001
     26          1           0        1.229752    3.402527   -0.000002
 ---------------------------------------------------------------------

 The electronic state is 1-A.
 Alpha  occ. eigenvalues --  -10.19762 -10.19760 -10.19754 -10.19753 -10.19654
 Alpha  occ. eigenvalues --  -10.19612 -10.19180 -10.19180 -10.19109 -10.19109
 Alpha  occ. eigenvalues --  -10.19107 -10.19107 -10.19003 -10.19003 -10.18988
 Alpha  occ. eigenvalues --  -10.18988  -0.88825  -0.84678  -0.82672  -0.79304
 Alpha  occ. eigenvalues --   -0.76299  -0.74435  -0.72683  -0.70669  -0.62501
 Alpha  occ. eigenvalues --   -0.62457  -0.62009  -0.60517  -0.54275  -0.52102
 Alpha  occ. eigenvalues --   -0.51464  -0.49874  -0.48913  -0.46879  -0.43891
 Alpha  occ. eigenvalues --   -0.43068  -0.42863  -0.41305  -0.40722  -0.39844
 Alpha  occ. eigenvalues --   -0.39420  -0.38848  -0.36449  -0.36221  -0.35861
 Alpha  occ. eigenvalues --   -0.33860  -0.32630  -0.31697  -0.29451  -0.27096
 Alpha  occ. eigenvalues --   -0.25252  -0.22802  -0.19574
 Alpha virt. eigenvalues --   -0.05445  -0.02260  -0.00136   0.02228   0.05963
 Alpha virt. eigenvalues --    0.09352   0.10762   0.11462   0.11666   0.13143
 Alpha virt. eigenvalues --    0.15012   0.15219   0.15683   0.16223   0.18409

 Mulliken charges:
               1
     1  C   -0.121986
     2  C   -0.225686
     3  C   -0.225686
     4  C    0.163839
     5  C    0.163839
     6  C   -0.012547
     7  C   -0.012547
     8  C    0.163839
     9  C    0.163838
    10  C   -0.225686
    11  C   -0.225686
    12  C   -0.121987
    13  H    0.128929
    14  C   -0.194959
    15  C   -0.194959
    16  H    0.130171
    17  H    0.128929
    18  H    0.128929
    19  H    0.130171
    20  C   -0.194959
    21  H    0.128929
    22  C   -0.194959
    23  H    0.130058
    24  H    0.130058
    25  H    0.130058
    26  H    0.130058
 Sum of Mulliken charges =  -0.00000

 Dipole moment (field-independent basis, Debye):
    X=              0.0000    Y=             -0.0000    Z=              0.0000  Tot=              0.0000
 Quadrupole moment (field-independent basis, Debye-Ang):
   XX=            -79.0987   YY=            -79.3937   ZZ=            -96.4819
   XY=              0.0000   XZ=              0.0000   YZ=              0.0000

 Normal termination of Gaussian 16 at Wed Jan 26 07:59:09 2022.
